    1C
    1UUSER                                                              
    1UDATE              26.june.2026                                    
    1UTIME              04:16:15                                        
    1UHOST                                                              
    1UPGM               CalculiX                                        
    1UVERSION           Version 2.20                             
    1UCOMPILETIME       Sun Jul 31 18:08:37 CEST 2022                    
    1UDIR                                                               
    1UDBN                                                               
    1UMAT    1STEEL                                                     
    2C                          1647                                     1
 -1         1-5.00000E+001-2.50000E+001-1.25000E+001
 -1         2-5.00000E+001-2.50000E+0011.25000E+001
 -1         3-5.00000E+0012.50000E+001-1.25000E+001
 -1         4-5.00000E+0012.50000E+0011.25000E+001
 -1         55.00000E+001-2.50000E+001-1.25000E+001
 -1         65.00000E+001-2.50000E+0011.25000E+001
 -1         75.00000E+0012.50000E+001-1.25000E+001
 -1         85.00000E+0012.50000E+0011.25000E+001
 -1         9-5.00000E+001-2.50000E+001-7.50000E+000
 -1        10-5.00000E+001-2.50000E+001-2.50000E+000
 -1        11-5.00000E+001-2.50000E+0012.50000E+000
 -1        12-5.00000E+001-2.50000E+0017.50000E+000
 -1        13-5.00000E+001-2.00000E+001-1.25000E+001
 -1        14-5.00000E+001-1.50000E+001-1.25000E+001
 -1        15-5.00000E+001-1.00000E+001-1.25000E+001
 -1        16-5.00000E+001-5.00000E+000-1.25000E+001
 -1        17-5.00000E+0010.00000E+000-1.25000E+001
 -1        18-5.00000E+0015.00000E+000-1.25000E+001
 -1        19-5.00000E+0011.00000E+001-1.25000E+001
 -1        20-5.00000E+0011.50000E+001-1.25000E+001
 -1        21-5.00000E+0012.00000E+001-1.25000E+001
 -1        22-5.00000E+0012.50000E+001-7.50000E+000
 -1        23-5.00000E+0012.50000E+001-2.50000E+000
 -1        24-5.00000E+0012.50000E+0012.50000E+000
 -1        25-5.00000E+0012.50000E+0017.50000E+000
 -1        26-5.00000E+001-2.00000E+0011.25000E+001
 -1        27-5.00000E+001-1.50000E+0011.25000E+001
 -1        28-5.00000E+001-1.00000E+0011.25000E+001
 -1        29-5.00000E+001-5.00000E+0001.25000E+001
 -1        30-5.00000E+0010.00000E+0001.25000E+001
 -1        31-5.00000E+0015.00000E+0001.25000E+001
 -1        32-5.00000E+0011.00000E+0011.25000E+001
 -1        33-5.00000E+0011.50000E+0011.25000E+001
 -1        34-5.00000E+0012.00000E+0011.25000E+001
 -1        355.00000E+001-2.50000E+001-7.50000E+000
 -1        365.00000E+001-2.50000E+001-2.50000E+000
 -1        375.00000E+001-2.50000E+0012.50000E+000
 -1        385.00000E+001-2.50000E+0017.50000E+000
 -1        395.00000E+001-2.00000E+001-1.25000E+001
 -1        405.00000E+001-1.50000E+001-1.25000E+001
 -1        415.00000E+001-1.00000E+001-1.25000E+001
 -1        425.00000E+001-5.00000E+000-1.25000E+001
 -1        435.00000E+0010.00000E+000-1.25000E+001
 -1        445.00000E+0015.00000E+000-1.25000E+001
 -1        455.00000E+0011.00000E+001-1.25000E+001
 -1        465.00000E+0011.50000E+001-1.25000E+001
 -1        475.00000E+0012.00000E+001-1.25000E+001
 -1        485.00000E+0012.50000E+001-7.50000E+000
 -1        495.00000E+0012.50000E+001-2.50000E+000
 -1        505.00000E+0012.50000E+0012.50000E+000
 -1        515.00000E+0012.50000E+0017.50000E+000
 -1        525.00000E+001-2.00000E+0011.25000E+001
 -1        535.00000E+001-1.50000E+0011.25000E+001
 -1        545.00000E+001-1.00000E+0011.25000E+001
 -1        555.00000E+001-5.00000E+0001.25000E+001
 -1        565.00000E+0010.00000E+0001.25000E+001
 -1        575.00000E+0015.00000E+0001.25000E+001
 -1        585.00000E+0011.00000E+0011.25000E+001
 -1        595.00000E+0011.50000E+0011.25000E+001
 -1        605.00000E+0012.00000E+0011.25000E+001
 -1        61-4.50000E+001-2.50000E+001-1.25000E+001
 -1        62-4.00000E+001-2.50000E+001-1.25000E+001
 -1        63-3.50000E+001-2.50000E+001-1.25000E+001
 -1        64-3.00000E+001-2.50000E+001-1.25000E+001
 -1        65-2.50000E+001-2.50000E+001-1.25000E+001
 -1        66-2.00000E+001-2.50000E+001-1.25000E+001
 -1        67-1.50000E+001-2.50000E+001-1.25000E+001
 -1        68-1.00000E+001-2.50000E+001-1.25000E+001
 -1        69-5.00000E+000-2.50000E+001-1.25000E+001
 -1        700.00000E+000-2.50000E+001-1.25000E+001
 -1        715.00000E+000-2.50000E+001-1.25000E+001
 -1        721.00000E+001-2.50000E+001-1.25000E+001
 -1        731.50000E+001-2.50000E+001-1.25000E+001
 -1        742.00000E+001-2.50000E+001-1.25000E+001
 -1        752.50000E+001-2.50000E+001-1.25000E+001
 -1        763.00000E+001-2.50000E+001-1.25000E+001
 -1        773.50000E+001-2.50000E+001-1.25000E+001
 -1        784.00000E+001-2.50000E+001-1.25000E+001
 -1        794.50000E+001-2.50000E+001-1.25000E+001
 -1        80-4.50000E+001-2.50000E+0011.25000E+001
 -1        81-4.00000E+001-2.50000E+0011.25000E+001
 -1        82-3.50000E+001-2.50000E+0011.25000E+001
 -1        83-3.00000E+001-2.50000E+0011.25000E+001
 -1        84-2.50000E+001-2.50000E+0011.25000E+001
 -1        85-2.00000E+001-2.50000E+0011.25000E+001
 -1        86-1.50000E+001-2.50000E+0011.25000E+001
 -1        87-1.00000E+001-2.50000E+0011.25000E+001
 -1        88-5.00000E+000-2.50000E+0011.25000E+001
 -1        890.00000E+000-2.50000E+0011.25000E+001
 -1        905.00000E+000-2.50000E+0011.25000E+001
 -1        911.00000E+001-2.50000E+0011.25000E+001
 -1        921.50000E+001-2.50000E+0011.25000E+001
 -1        932.00000E+001-2.50000E+0011.25000E+001
 -1        942.50000E+001-2.50000E+0011.25000E+001
 -1        953.00000E+001-2.50000E+0011.25000E+001
 -1        963.50000E+001-2.50000E+0011.25000E+001
 -1        974.00000E+001-2.50000E+0011.25000E+001
 -1        984.50000E+001-2.50000E+0011.25000E+001
 -1        99-4.50000E+0012.50000E+001-1.25000E+001
 -1       100-4.00000E+0012.50000E+001-1.25000E+001
 -1       101-3.50000E+0012.50000E+001-1.25000E+001
 -1       102-3.00000E+0012.50000E+001-1.25000E+001
 -1       103-2.50000E+0012.50000E+001-1.25000E+001
 -1       104-2.00000E+0012.50000E+001-1.25000E+001
 -1       105-1.50000E+0012.50000E+001-1.25000E+001
 -1       106-1.00000E+0012.50000E+001-1.25000E+001
 -1       107-5.00000E+0002.50000E+001-1.25000E+001
 -1       1080.00000E+0002.50000E+001-1.25000E+001
 -1       1095.00000E+0002.50000E+001-1.25000E+001
 -1       1101.00000E+0012.50000E+001-1.25000E+001
 -1       1111.50000E+0012.50000E+001-1.25000E+001
 -1       1122.00000E+0012.50000E+001-1.25000E+001
 -1       1132.50000E+0012.50000E+001-1.25000E+001
 -1       1143.00000E+0012.50000E+001-1.25000E+001
 -1       1153.50000E+0012.50000E+001-1.25000E+001
 -1       1164.00000E+0012.50000E+001-1.25000E+001
 -1       1174.50000E+0012.50000E+001-1.25000E+001
 -1       118-4.50000E+0012.50000E+0011.25000E+001
 -1       119-4.00000E+0012.50000E+0011.25000E+001
 -1       120-3.50000E+0012.50000E+0011.25000E+001
 -1       121-3.00000E+0012.50000E+0011.25000E+001
 -1       122-2.50000E+0012.50000E+0011.25000E+001
 -1       123-2.00000E+0012.50000E+0011.25000E+001
 -1       124-1.50000E+0012.50000E+0011.25000E+001
 -1       125-1.00000E+0012.50000E+0011.25000E+001
 -1       126-5.00000E+0002.50000E+0011.25000E+001
 -1       1270.00000E+0002.50000E+0011.25000E+001
 -1       1285.00000E+0002.50000E+0011.25000E+001
 -1       1291.00000E+0012.50000E+0011.25000E+001
 -1       1301.50000E+0012.50000E+0011.25000E+001
 -1       1312.00000E+0012.50000E+0011.25000E+001
 -1       1322.50000E+0012.50000E+0011.25000E+001
 -1       1333.00000E+0012.50000E+0011.25000E+001
 -1       1343.50000E+0012.50000E+0011.25000E+001
 -1       1354.00000E+0012.50000E+0011.25000E+001
 -1       1364.50000E+0012.50000E+0011.25000E+001
 -1       137-5.00000E+0012.09075E+0012.00833E-001
 -1       138-5.00000E+001-2.09073E+0012.83373E-001
 -1       139-5.00000E+001-7.50000E+000-8.16987E+000
 -1       140-5.00000E+0012.50000E+000-8.16987E+000
 -1       141-5.00000E+001-2.50000E+0008.16987E+000
 -1       142-5.00000E+0017.50000E+0008.16987E+000
 -1       143-5.00000E+0011.24591E+001-8.19347E+000
 -1       144-5.00000E+001-1.22422E+0018.41125E+000
 -1       145-5.00000E+001-1.74788E+001-8.26614E+000
 -1       146-5.00000E+0011.71529E+0017.70245E+000
 -1       147-5.00000E+001-2.50000E+000-8.16987E+000
 -1       148-5.00000E+001-5.00000E+000-3.83975E+000
 -1       149-5.00000E+001-1.00000E+001-3.83975E+000
 -1       150-5.00000E+001-7.50000E+0004.90381E-001
 -1       151-5.00000E+001-2.50000E+0004.90381E-001
 -1       152-5.00000E+001-1.28801E+0014.64591E-001
 -1       153-5.00000E+001-2.07654E+0014.99716E+000
 -1       154-5.00000E+001-1.24965E+001-8.18592E+000
 -1       155-5.00000E+0017.49319E+000-8.17381E+000
 -1       156-5.00000E+0019.99205E+000-3.84433E+000
 -1       157-5.00000E+0011.50199E+001-4.31763E+000
 -1       158-5.00000E+0011.28821E+0013.94906E-001
 -1       159-5.00000E+0017.56236E+0003.10244E-001
 -1       160-5.00000E+0015.00793E+000-3.87119E+000
 -1       161-5.00000E+0012.50598E+0003.88991E-001
 -1       162-5.00000E+0012.31800E-003-3.86189E+000
 -1       163-5.00000E+0012.03716E+001-4.72601E+000
 -1       164-5.00000E+001-7.50000E+0008.16987E+000
 -1       165-5.00000E+0012.50000E+0008.16987E+000
 -1       166-5.00000E+0011.22253E+0018.30968E+000
 -1       167-5.00000E+001-1.51515E+001-4.27116E+000
 -1       168-5.00000E+001-2.03028E+001-4.59123E+000
 -1       169-5.00000E+0011.73651E+001-8.51281E+000
 -1       170-5.00000E+0012.10200E+0014.87335E+000
 -1       171-5.00000E+001-1.71094E+0017.77203E+000
 -1       172-5.00000E+001-1.71005E+0012.85471E+000
 -1       173-5.00000E+0011.71509E+0012.79671E+000
 -1       174-5.00000E+001-9.80340E+0004.42038E+000
 -1       175-5.00000E+001-5.00000E+0004.33013E+000
 -1       176-5.00000E+001-0.00000E+0004.33013E+000
 -1       177-5.00000E+0019.81143E+0004.36174E+000
 -1       178-5.00000E+0015.00000E+0004.33013E+000
 -1       179-5.00000E+0012.13397E+001-8.83975E+000
 -1       180-5.00000E+001-2.13397E+001-8.83975E+000
 -1       181-5.00000E+0012.13397E+0018.83975E+000
 -1       182-5.00000E+001-2.13397E+0018.83975E+000
 -1       183-5.00000E+0011.36988E+0014.65561E+000
 -1       184-5.00000E+001-1.38271E+0014.78460E+000
 -1       185-5.00000E+001-1.72685E+001-1.05194E+000
 -1       186-5.00000E+0011.72438E+001-1.04692E+000
 -1       1875.00000E+001-2.09073E+0012.83373E-001
 -1       1885.00000E+001-7.50000E+000-8.16987E+000
 -1       1895.00000E+0012.50000E+000-8.16987E+000
 -1       1905.00000E+0011.24591E+001-8.19347E+000
 -1       1915.00000E+001-2.50000E+0008.16987E+000
 -1       1925.00000E+0017.50000E+0008.16987E+000
 -1       1935.00000E+001-1.22422E+0018.41125E+000
 -1       1945.00000E+0012.09075E+0012.00833E-001
 -1       1955.00000E+001-1.74788E+001-8.26614E+000
 -1       1965.00000E+0011.71529E+0017.70245E+000
 -1       1975.00000E+001-2.50000E+000-8.16987E+000
 -1       1985.00000E+001-5.00000E+000-3.83975E+000
 -1       1995.00000E+001-1.00000E+001-3.83975E+000
 -1       2005.00000E+001-7.50000E+0004.90381E-001
 -1       2015.00000E+001-2.50000E+0004.90381E-001
 -1       2025.00000E+001-1.28801E+0014.64591E-001
 -1       2035.00000E+001-2.07654E+0014.99716E+000
 -1       2045.00000E+001-1.24965E+001-8.18592E+000
 -1       2055.00000E+0017.49319E+000-8.17381E+000
 -1       2065.00000E+0019.99205E+000-3.84433E+000
 -1       2075.00000E+0011.50199E+001-4.31763E+000
 -1       2085.00000E+0011.28821E+0013.94906E-001
 -1       2095.00000E+0017.56236E+0003.10244E-001
 -1       2105.00000E+0015.00793E+000-3.87119E+000
 -1       2115.00000E+0012.50598E+0003.88991E-001
 -1       2125.00000E+0012.31800E-003-3.86189E+000
 -1       2135.00000E+0012.03716E+001-4.72601E+000
 -1       2145.00000E+001-7.50000E+0008.16987E+000
 -1       2155.00000E+0012.50000E+0008.16987E+000
 -1       2165.00000E+0011.22253E+0018.30968E+000
 -1       2175.00000E+001-1.51515E+001-4.27116E+000
 -1       2185.00000E+001-2.03028E+001-4.59123E+000
 -1       2195.00000E+0011.73651E+001-8.51281E+000
 -1       2205.00000E+0012.10200E+0014.87335E+000
 -1       2215.00000E+001-1.71094E+0017.77203E+000
 -1       2225.00000E+001-1.71005E+0012.85471E+000
 -1       2235.00000E+0011.71509E+0012.79671E+000
 -1       2245.00000E+001-9.80340E+0004.42038E+000
 -1       2255.00000E+001-5.00000E+0004.33013E+000
 -1       2265.00000E+001-0.00000E+0004.33013E+000
 -1       2275.00000E+0019.81143E+0004.36174E+000
 -1       2285.00000E+0015.00000E+0004.33013E+000
 -1       2295.00000E+0012.13397E+001-8.83975E+000
 -1       2305.00000E+001-2.13397E+001-8.83975E+000
 -1       2315.00000E+0012.13397E+0018.83975E+000
 -1       2325.00000E+001-2.13397E+0018.83975E+000
 -1       2335.00000E+0011.36988E+0014.65561E+000
 -1       2345.00000E+001-1.38271E+0014.78460E+000
 -1       2355.00000E+001-1.72685E+001-1.05194E+000
 -1       2365.00000E+0011.72438E+001-1.04692E+000
 -1       237-3.75000E+001-2.50000E+001-8.16987E+000
 -1       2384.63568E+001-2.50000E+0010.00000E+000
 -1       239-2.75000E+001-2.50000E+001-8.16987E+000
 -1       240-1.75000E+001-2.50000E+001-8.16987E+000
 -1       241-7.50000E+000-2.50000E+001-8.16987E+000
 -1       2422.50000E+000-2.50000E+001-8.16987E+000
 -1       2431.25000E+001-2.50000E+001-8.16987E+000
 -1       2442.25000E+001-2.50000E+001-8.16987E+000
 -1       2453.25000E+001-2.50000E+001-8.16987E+000
 -1       246-3.25000E+001-2.50000E+0018.16987E+000
 -1       247-2.25000E+001-2.50000E+0018.16987E+000
 -1       248-1.25000E+001-2.50000E+0018.16987E+000
 -1       249-2.50000E+000-2.50000E+0018.16987E+000
 -1       2507.50000E+000-2.50000E+0018.16987E+000
 -1       2511.75000E+001-2.50000E+0018.16987E+000
 -1       2522.75000E+001-2.50000E+0018.16987E+000
 -1       253-4.59311E+001-2.50000E+0012.41698E-001
 -1       2543.75000E+001-2.50000E+0018.25175E+000
 -1       255-4.21529E+001-2.50000E+0017.70245E+000
 -1       2564.24788E+001-2.50000E+001-8.26614E+000
 -1       257-2.50000E+000-2.50000E+001-8.16987E+000
 -1       2580.00000E+000-2.50000E+001-3.83975E+000
 -1       2595.00000E+000-2.50000E+001-3.83975E+000
 -1       2602.50000E+000-2.50000E+0014.90381E-001
 -1       2617.50000E+000-2.50000E+0014.90381E-001
 -1       262-2.50000E+000-2.50000E+0014.90381E-001
 -1       263-5.00000E+000-2.50000E+001-3.83975E+000
 -1       264-1.00000E+001-2.50000E+001-3.83975E+000
 -1       265-7.50000E+000-2.50000E+0014.90381E-001
 -1       266-1.25000E+001-2.50000E+0014.90381E-001
 -1       2671.00000E+001-2.50000E+001-3.83975E+000
 -1       2681.25000E+001-2.50000E+0014.90381E-001
 -1       2691.50000E+001-2.50000E+001-3.83975E+000
 -1       2701.75000E+001-2.50000E+0014.90381E-001
 -1       2712.00000E+001-2.50000E+001-3.83975E+000
 -1       2722.25000E+001-2.50000E+0014.90381E-001
 -1       2732.50000E+001-2.50000E+001-3.83975E+000
 -1       2742.75000E+001-2.50000E+0014.90381E-001
 -1       2753.00000E+001-2.50000E+001-3.83975E+000
 -1       2763.25000E+001-2.50000E+0014.90381E-001
 -1       2772.50000E+000-2.50000E+0018.16987E+000
 -1       278-4.24788E+001-2.50000E+001-8.26614E+000
 -1       279-4.00890E+001-2.50000E+001-4.26452E+000
 -1       280-3.50148E+001-2.50000E+001-3.91054E+000
 -1       281-3.78952E+001-2.50000E+0013.93035E-001
 -1       282-3.25683E+001-2.50000E+0012.98897E-001
 -1       283-3.25025E+001-2.50000E+001-8.18167E+000
 -1       284-2.25000E+001-2.50000E+001-8.16987E+000
 -1       285-2.50000E+001-2.50000E+001-3.83975E+000
 -1       286-2.00000E+001-2.50000E+001-3.83975E+000
 -1       287-2.25000E+001-2.50000E+0014.90381E-001
 -1       288-2.75058E+001-2.50000E+0013.90700E-001
 -1       2891.75000E+001-2.50000E+001-8.16987E+000
 -1       2902.75000E+001-2.50000E+001-8.16987E+000
 -1       2913.74965E+001-2.50000E+001-8.18592E+000
 -1       2923.99037E+001-2.50000E+001-4.13112E+000
 -1       293-3.72253E+001-2.50000E+0018.30968E+000
 -1       294-2.75000E+001-2.50000E+0018.16987E+000
 -1       295-1.75000E+001-2.50000E+0018.16987E+000
 -1       296-7.50000E+000-2.50000E+0018.16987E+000
 -1       2971.25000E+001-2.50000E+0018.16987E+000
 -1       2982.25000E+001-2.50000E+0018.16987E+000
 -1       2993.25000E+001-2.50000E+0018.21601E+000
 -1       3004.24788E+001-2.50000E+0018.27111E+000
 -1       3013.99043E+001-2.50000E+0014.31143E+000
 -1       302-3.00152E+001-2.50000E+001-3.90204E+000
 -1       3037.50000E+000-2.50000E+001-8.16987E+000
 -1       304-1.25000E+001-2.50000E+001-8.16987E+000
 -1       3053.49168E+001-2.50000E+001-3.92939E+000
 -1       306-1.75000E+001-2.50000E+0014.90381E-001
 -1       307-1.50000E+001-2.50000E+001-3.83975E+000
 -1       3084.55151E+001-2.50000E+0014.61914E+000
 -1       3094.53965E+001-2.50000E+001-4.54597E+000
 -1       310-4.52975E+001-2.50000E+001-4.59652E+000
 -1       311-4.60240E+001-2.50000E+0014.88017E+000
 -1       312-4.21576E+001-2.50000E+0012.80434E+000
 -1       3133.71008E+001-2.50000E+0012.59908E-001
 -1       314-5.00000E+000-2.50000E+0014.33013E+000
 -1       315-1.50000E+001-2.50000E+0014.33013E+000
 -1       316-2.00000E+001-2.50000E+0014.33013E+000
 -1       317-3.48146E+001-2.50000E+0014.35954E+000
 -1       318-3.00000E+001-2.50000E+0014.33013E+000
 -1       3195.00000E+000-2.50000E+0014.33013E+000
 -1       320-2.50000E+001-2.50000E+0014.33013E+000
 -1       321-1.00000E+001-2.50000E+0014.33013E+000
 -1       322-0.00000E+000-2.50000E+0014.33013E+000
 -1       3233.00000E+001-2.50000E+0014.33013E+000
 -1       3242.00000E+001-2.50000E+0014.33013E+000
 -1       3251.00000E+001-2.50000E+0014.33013E+000
 -1       3261.50000E+001-2.50000E+0014.33013E+000
 -1       3272.50000E+001-2.50000E+0014.33013E+000
 -1       3283.50000E+001-2.50000E+0014.33099E+000
 -1       3294.19573E+001-2.50000E+0014.36560E-002
 -1       330-4.63397E+001-2.50000E+001-8.83975E+000
 -1       331-4.63397E+001-2.50000E+0018.83975E+000
 -1       3324.63397E+001-2.50000E+001-8.83975E+000
 -1       3334.63397E+001-2.50000E+0018.83975E+000
 -1       334-3.87379E+001-2.50000E+0014.67076E+000
 -1       335-4.22438E+001-2.50000E+001-1.04692E+000
 -1       336-4.56935E+0012.50000E+0014.08650E-002
 -1       3374.59311E+0012.50000E+0012.41698E-001
 -1       338-3.25769E+0012.50000E+001-7.96703E+000
 -1       339-2.30637E+0012.50000E+001-7.77385E+000
 -1       340-1.25054E+0012.50000E+001-8.42136E+000
 -1       341-2.50000E+0002.50000E+001-8.16987E+000
 -1       3427.50000E+0002.50000E+001-8.16987E+000
 -1       3431.75000E+0012.50000E+001-8.16987E+000
 -1       3442.75000E+0012.50000E+001-8.16987E+000
 -1       345-2.73420E+0012.50000E+0018.26109E+000
 -1       346-1.75000E+0012.50000E+0018.36921E+000
 -1       347-7.56575E+0002.50000E+0018.29052E+000
 -1       3482.50000E+0002.50000E+0018.16987E+000
 -1       3491.25000E+0012.50000E+0018.16987E+000
 -1       3502.25000E+0012.50000E+0018.16987E+000
 -1       3513.25000E+0012.50000E+0018.16987E+000
 -1       352-3.79336E+0012.50000E+0018.01852E+000
 -1       3533.75000E+0012.50000E+001-8.16987E+000
 -1       354-4.20409E+0012.50000E+001-7.97151E+000
 -1       3554.21529E+0012.50000E+0017.70245E+000
 -1       356-4.57676E+0012.50000E+0014.98130E+000
 -1       357-4.09294E+0012.50000E+0013.28313E+000
 -1       358-4.13397E+0012.50000E+001-2.50000E+000
 -1       359-3.70096E+0012.50000E+0010.00000E+000
 -1       360-3.71911E+0012.50000E+001-5.01486E+000
 -1       361-3.26926E+0012.50000E+001-2.58032E+000
 -1       362-3.26795E+0012.50000E+0012.50000E+000
 -1       363-2.84230E+0012.50000E+0012.80460E-002
 -1       364-2.80459E+0012.50000E+001-4.98529E+000
 -1       365-2.40192E+0012.50000E+001-2.50000E+000
 -1       366-1.91853E+0012.50000E+001-3.98301E+000
 -1       367-1.99954E+0012.50000E+0017.93999E-001
 -1       368-1.53029E+0012.50000E+001-9.56798E-001
 -1       3692.50000E+0002.50000E+001-8.16987E+000
 -1       3700.00000E+0002.50000E+001-3.83975E+000
 -1       371-5.00000E+0002.50000E+001-3.83975E+000
 -1       372-2.50000E+0002.50000E+0014.90381E-001
 -1       3732.50000E+0002.50000E+0014.90381E-001
 -1       374-7.39915E+0002.50000E+0012.38916E-001
 -1       375-1.06057E+0012.50000E+001-3.69486E+000
 -1       376-2.50399E+0002.50000E+0018.23677E+000
 -1       377-7.60184E+0002.50000E+001-8.18764E+000
 -1       3781.25000E+0012.50000E+001-8.16987E+000
 -1       3791.50000E+0012.50000E+001-3.83975E+000
 -1       3802.00000E+0012.50000E+001-3.83975E+000
 -1       3811.75000E+0012.50000E+0014.90381E-001
 -1       3821.25000E+0012.50000E+0014.90381E-001
 -1       3832.25000E+0012.50000E+0014.90381E-001
 -1       3842.50000E+0012.50000E+001-3.83975E+000
 -1       3852.75000E+0012.50000E+0014.90381E-001
 -1       3863.00000E+0012.50000E+001-3.83975E+000
 -1       3873.25000E+0012.50000E+0014.90381E-001
 -1       3883.50000E+0012.50000E+001-3.83975E+000
 -1       3893.78804E+0012.50000E+0014.63830E-001
 -1       3904.01559E+0012.50000E+001-4.25290E+000
 -1       3914.24916E+0012.50000E+001-8.25656E+000
 -1       3923.25000E+0012.50000E+001-8.16987E+000
 -1       393-3.26449E+0012.50000E+0017.47092E+000
 -1       394-2.24737E+0012.50000E+0018.39018E+000
 -1       395-2.44722E+0012.50000E+0013.46162E+000
 -1       396-1.25767E+0012.50000E+0018.28959E+000
 -1       3977.50000E+0002.50000E+0018.16987E+000
 -1       3981.75000E+0012.50000E+0018.16987E+000
 -1       3992.75000E+0012.50000E+0018.16987E+000
 -1       4003.72253E+0012.50000E+0018.30968E+000
 -1       4012.25000E+0012.50000E+001-8.16987E+000
 -1       4021.00000E+0012.50000E+001-3.83975E+000
 -1       4035.00000E+0002.50000E+001-3.83975E+000
 -1       4047.50000E+0002.50000E+0014.90381E-001
 -1       405-1.53243E+0012.50000E+0013.66564E+000
 -1       4064.60240E+0012.50000E+0014.88017E+000
 -1       407-4.58763E+0012.50000E+001-4.84309E+000
 -1       408-4.25455E+0012.50000E+0018.34168E+000
 -1       4094.53089E+0012.50000E+001-4.59349E+000
 -1       4104.21552E+0012.50000E+0012.81614E+000
 -1       411-1.74746E+0012.50000E+001-8.41841E+000
 -1       412-9.89438E+0002.50000E+0014.17234E+000
 -1       4135.00000E+0002.50000E+0014.33013E+000
 -1       4141.00000E+0012.50000E+0014.33013E+000
 -1       4151.50000E+0012.50000E+0014.33013E+000
 -1       4162.00000E+0012.50000E+0014.33013E+000
 -1       4170.00000E+0002.50000E+0014.33013E+000
 -1       418-4.99170E+0002.50000E+0014.31666E+000
 -1       4192.50000E+0012.50000E+0014.33013E+000
 -1       4203.00000E+0012.50000E+0014.33013E+000
 -1       4213.48008E+0012.50000E+0014.40325E+000
 -1       422-2.75000E+0012.50000E+001-9.11857E+000
 -1       423-3.73618E+0012.50000E+001-9.19068E+000
 -1       424-3.65072E+0012.50000E+0014.12981E+000
 -1       425-1.99531E+0012.50000E+0014.93613E+000
 -1       426-1.50148E+0012.50000E+001-5.09489E+000
 -1       427-2.91123E+0012.50000E+0014.34434E+000
 -1       428-1.15004E+0012.50000E+0012.19215E-001
 -1       429-4.63397E+0012.50000E+001-8.83975E+000
 -1       4304.63397E+0012.50000E+0018.83975E+000
 -1       431-4.63397E+0012.50000E+0018.83975E+000
 -1       4324.63397E+0012.50000E+001-8.83975E+000
 -1       4333.87363E+0012.50000E+0014.67733E+000
 -1       4344.22438E+0012.50000E+001-1.04692E+000
 -1       435-2.31955E+001-2.02945E+001-1.25000E+001
 -1       436-7.09813E+000-2.02324E+001-1.25000E+001
 -1       4377.50000E+000-2.06699E+001-1.25000E+001
 -1       4382.23565E+001-2.05869E+001-1.25000E+001
 -1       439-1.75921E+0012.09253E+001-1.25000E+001
 -1       440-2.35044E+0002.16039E+001-1.25000E+001
 -1       4411.24539E+0012.12750E+001-1.25000E+001
 -1       4422.80307E+0012.01675E+001-1.25000E+001
 -1       443-4.56699E+0012.50000E+000-1.25000E+001
 -1       4444.56699E+001-2.50000E+000-1.25000E+001
 -1       445-3.26069E+0012.05615E+001-1.25000E+001
 -1       446-3.25549E+001-2.05567E+001-1.25000E+001
 -1       4473.27924E+001-2.10170E+001-1.25000E+001
 -1       448-4.56699E+001-7.50000E+000-1.25000E+001
 -1       4494.56699E+0017.50000E+000-1.25000E+001
 -1       450-4.57194E+0011.26043E+001-1.25000E+001
 -1       4514.52461E+001-1.24325E+001-1.25000E+001
 -1       4523.71089E+0012.04043E+001-1.25000E+001
 -1       453-4.57815E+001-1.73066E+001-1.25000E+001
 -1       4544.58550E+0011.78028E+001-1.25000E+001
 -1       4554.25078E+001-2.07594E+001-1.25000E+001
 -1       456-4.18663E+0012.06206E+001-1.25000E+001
 -1       457-4.56781E+0017.51739E+000-1.25000E+001
 -1       458-4.13411E+0015.00290E+000-1.25000E+001
 -1       459-4.13400E+0014.83000E-004-1.25000E+001
 -1       460-3.70099E+0012.50056E+000-1.25000E+001
 -1       461-3.70097E+001-2.49983E+000-1.25000E+001
 -1       462-3.26796E+0011.23000E-004-1.25000E+001
 -1       463-3.26795E+001-4.99995E+000-1.25000E+001
 -1       464-2.83494E+001-2.49997E+000-1.25000E+001
 -1       465-2.83494E+0012.50003E+000-1.25000E+001
 -1       466-2.40192E+0010.00000E+000-1.25000E+001
 -1       467-2.40192E+0015.00000E+000-1.25000E+001
 -1       468-1.96891E+0012.50000E+000-1.25000E+001
 -1       469-1.96891E+001-2.50000E+000-1.25000E+001
 -1       470-1.53590E+0010.00000E+000-1.25000E+001
 -1       471-1.53590E+0015.00000E+000-1.25000E+001
 -1       472-1.10289E+0012.50000E+000-1.25000E+001
 -1       473-1.10289E+001-2.50000E+000-1.25000E+001
 -1       474-6.69873E+0000.00000E+000-1.25000E+001
 -1       475-6.69873E+000-5.00000E+000-1.25000E+001
 -1       476-2.36860E+000-2.50000E+000-1.25000E+001
 -1       477-2.36860E+0002.50000E+000-1.25000E+001
 -1       4781.96152E+0000.00000E+000-1.25000E+001
 -1       4791.96152E+0005.00000E+000-1.25000E+001
 -1       4806.29165E+0002.50000E+000-1.25000E+001
 -1       4816.29165E+000-2.50000E+000-1.25000E+001
 -1       4821.06218E+0010.00000E+000-1.25000E+001
 -1       4831.06218E+001-5.00000E+000-1.25000E+001
 -1       4841.49519E+001-2.50000E+000-1.25000E+001
 -1       4851.49519E+0012.50000E+000-1.25000E+001
 -1       4861.92820E+0010.00000E+000-1.25000E+001
 -1       4871.92820E+0015.00000E+000-1.25000E+001
 -1       4882.36122E+0012.50000E+000-1.25000E+001
 -1       4892.36122E+001-2.50000E+000-1.25000E+001
 -1       4902.79423E+0010.00000E+000-1.25000E+001
 -1       4912.79423E+0015.00000E+000-1.25000E+001
 -1       4922.79423E+001-5.00000E+000-1.25000E+001
 -1       493-2.36860E+000-7.50000E+000-1.25000E+001
 -1       494-1.10289E+001-7.50000E+000-1.25000E+001
 -1       495-1.10289E+0017.50000E+000-1.25000E+001
 -1       4961.49519E+001-7.50000E+000-1.25000E+001
 -1       4973.22724E+0012.50000E+000-1.25000E+001
 -1       4986.29165E+0007.50000E+000-1.25000E+001
 -1       499-2.83494E+001-7.49999E+000-1.25000E+001
 -1       5003.22724E+0017.50000E+000-1.25000E+001
 -1       501-3.70557E+0017.57402E+000-1.25000E+001
 -1       5021.96152E+0001.00000E+001-1.25000E+001
 -1       503-3.26795E+001-9.99999E+000-1.25000E+001
 -1       5041.06218E+001-1.00000E+001-1.25000E+001
 -1       5051.49519E+001-1.25000E+001-1.25000E+001
 -1       5062.80674E+0019.92800E+000-1.25000E+001
 -1       507-1.53590E+0011.00000E+001-1.25000E+001
 -1       508-1.10289E+0011.25000E+001-1.25000E+001
 -1       5091.92820E+001-1.00000E+001-1.25000E+001
 -1       5101.49519E+0017.50000E+000-1.25000E+001
 -1       511-2.83494E+0017.50000E+000-1.25000E+001
 -1       512-2.40192E+0011.00000E+001-1.25000E+001
 -1       5131.92405E+0019.92800E+000-1.25000E+001
 -1       5146.29165E+0001.25000E+001-1.25000E+001
 -1       515-2.83494E+001-1.25000E+001-1.25000E+001
 -1       516-2.40192E+001-1.00000E+001-1.25000E+001
 -1       5173.24600E+0011.24880E+001-1.25000E+001
 -1       5183.66103E+0019.99800E+000-1.25000E+001
 -1       519-2.83494E+0011.25000E+001-1.25000E+001
 -1       520-2.40711E+0011.49103E+001-1.25000E+001
 -1       521-6.69873E+0001.00000E+001-1.25000E+001
 -1       5221.49530E+0011.23992E+001-1.25000E+001
 -1       5231.96509E+0011.55774E+001-1.25000E+001
 -1       5242.13390E+0001.49633E+001-1.25000E+001
 -1       5256.45725E+0001.71936E+001-1.25000E+001
 -1       526-6.72503E+0001.49723E+001-1.25000E+001
 -1       527-1.12594E+0011.72123E+001-1.25000E+001
 -1       5281.95953E+001-1.58198E+001-1.25000E+001
 -1       5292.36122E+001-1.25000E+001-1.25000E+001
 -1       5301.50277E+001-1.70396E+001-1.25000E+001
 -1       531-2.40192E+001-1.50000E+001-1.25000E+001
 -1       532-1.96891E+001-1.25000E+001-1.25000E+001
 -1       5333.67119E+0011.50296E+001-1.25000E+001
 -1       5344.09711E+0011.22750E+001-1.25000E+001
 -1       5353.26257E+0011.74588E+001-1.25000E+001
 -1       536-3.26587E+001-1.51262E+001-1.25000E+001
 -1       537-3.70062E+001-1.25210E+001-1.25000E+001
 -1       538-3.70096E+001-1.75000E+001-1.25000E+001
 -1       539-2.82547E+0011.74206E+001-1.25000E+001
 -1       540-3.26821E+0011.52325E+001-1.25000E+001
 -1       541-3.71384E+0011.78769E+001-1.25000E+001
 -1       542-3.72847E+0011.29406E+001-1.25000E+001
 -1       543-2.81329E+001-1.75819E+001-1.25000E+001
 -1       544-2.34667E+0012.01806E+001-1.25000E+001
 -1       545-4.14634E+0011.55751E+001-1.25000E+001
 -1       5463.65803E+0014.99967E+000-1.25000E+001
 -1       5473.65753E+001-5.60000E-005-1.25000E+001
 -1       5484.09327E+0012.50000E+000-1.25000E+001
 -1       5491.03234E+001-1.57709E+001-1.25000E+001
 -1       5506.29165E+000-1.25000E+001-1.25000E+001
 -1       551-2.25712E+0001.23383E+001-1.25000E+001
 -1       552-6.69873E+000-1.00000E+001-1.25000E+001
 -1       553-2.36860E+000-1.25000E+001-1.25000E+001
 -1       554-1.09955E+001-1.25274E+001-1.25000E+001
 -1       555-6.69153E+000-1.49251E+001-1.25000E+001
 -1       556-2.45587E+000-1.73872E+001-1.25000E+001
 -1       5571.87378E+000-1.48544E+001-1.25000E+001
 -1       5582.18148E+000-2.01880E+001-1.25000E+001
 -1       559-4.13578E+001-1.49713E+001-1.25000E+001
 -1       560-4.18555E+001-2.03955E+001-1.25000E+001
 -1       5613.22679E+001-2.50001E+000-1.25000E+001
 -1       5623.22717E+001-7.50000E+000-1.25000E+001
 -1       5633.65736E+001-5.00001E+000-1.25000E+001
 -1       5643.65741E+001-1.00000E+001-1.25000E+001
 -1       5653.21812E+001-1.23504E+001-1.25000E+001
 -1       5663.61382E+001-1.44052E+001-1.25000E+001